BEGIN_CFG
 Size
    231
 Supercell
         2.693339      0.000000      0.000000
         0.000000     76.179131      0.000000
         0.000000      0.000000     26.389225
 AtomData:  id type       cartes_x      cartes_y      cartes_z           fx          fy          fz
             1    0       0.114280      3.808960      2.199100     0.545181    0.203376    0.844308
             2    0       1.934560      5.078610      0.000000    -0.214106    2.034109   -0.939975
             3    0       1.893520      1.269650      2.199100     0.008976   -1.620235   -0.746266
             4    0       1.017550      2.539300      0.000000    -0.161986   -2.048176   -1.255728
             5    0       2.023940     12.696520      0.000000     0.128741    0.632007   -0.078856
             6    0       1.223260     17.775130      0.000000     0.031080   -0.894902    0.162634
             7    0       2.354380     27.932350      0.000000    -0.134595    0.357278   -0.851951
             8    0       2.314540     24.123390      2.199100     0.032236   -0.583511   -0.948202
             9    0       2.318570     43.168170      0.000000    -0.186492    0.051132   -0.264370
            10    0       2.454860     39.359220      2.199100     0.193475   -1.125921   -1.059803
            11    0       1.207480     52.055740      2.199100     0.198624    1.511882   -0.004836
            12    0       1.900850      5.078610      4.398200    -0.371744   -0.523102    1.416535
            13    0       1.988420     12.696520      4.398200    -0.106460   -0.788498   -0.484341
            14    0       0.126610      7.617910      4.398200     0.067304    0.475663    0.379933
            15    0       0.244680     15.235830      4.398200    -0.265293    0.667141   -0.637827
            16    0       1.212670     17.775130      4.398200     0.368550    0.687945    0.146234
            17    0       2.495740     27.932350      4.398200    -0.270345    0.120260    0.682916
            18    0       2.416550     24.123390      6.597310     0.094460    0.059276    0.881493
            19    0       2.584950     35.550260      4.398200     0.296521    1.247972   -0.022056
            20    0       0.756880     30.471650      4.398200    -0.119004    0.223741   -0.191948
            21    0       1.683770     33.010960      4.398200     0.070494   -0.155060    0.405176
            22    0       2.306120     46.977130      6.597310    -0.326578   -1.158827    1.058752
            23    0       0.151570     57.134350      6.597310     0.208683    0.868224    0.600761
            24    0       1.912520     12.696520      8.796410     0.328899   -0.657670   -0.287909
            25    0       0.970910     13.966170     10.995510     0.017955    0.296440    0.283604
            26    0       0.182650     19.044780     10.995510    -0.232524   -0.981794   -1.878170
            27    0       1.066620     26.662700     10.995510     0.096276   -0.875012    0.518744
            28    0       0.035410     27.932350      8.796410    -0.029110   -1.442146   -2.186989
            29    0       2.627920     24.123390     10.995510    -0.421990   -0.153726   -0.996975
            30    0       2.043230     29.202000     10.995510     0.204751    0.527154    0.831919
            31    0       0.137030     35.550260      8.796410     0.051299    0.295393   -0.516392
            32    0       1.001860     30.471650      8.796410     0.036546    2.083765   -1.281752
            33    0       1.821650     44.437830     10.995510     0.592687    0.387663   -1.306910
            34    0       0.217960     49.516440     10.995510    -0.303409   -0.822358   -0.167432
            35    0       0.057800     57.134350     10.995510     0.131585    0.497907   -2.444928
            36    0       1.795560     20.314430     13.194610     0.089849    0.222924    1.171144
            37    0       0.000000     15.235830     13.194610     0.043146   -0.307928    0.931129
            38    0       1.346670     30.471650     13.194610     0.086637    0.140174    0.690287
            39    0       1.299950     46.977130     15.393710     0.297443    0.753391    3.070788
            40    0       1.795560     58.404000     13.194610    -0.129415    0.958908    0.304627
            41    0       0.897780     55.864700     13.194610    -0.221737   -1.673684    0.378531
            42    0       2.665210     64.752260     15.393710    -0.383453    1.394415   -0.127522
            43    0       0.000000     60.943300     13.194610    -0.018628    0.815974   -1.022018
            44    0       0.663800     17.775130     17.592820    -0.459579    0.267230   -1.090004
            45    0       1.174570     24.123390     19.791920     0.173333   -1.438747    1.889893
            46    0       0.059580     29.202000     19.791920    -0.028757    0.590005    0.912489
            47    0       0.100430     25.393040     17.592820    -0.038086    1.694300   -0.363544
            48    0       0.238100     44.437830     19.791920    -0.154302    0.531823    0.896327
            49    0       1.533250     50.786090     17.592820     0.203696   -1.725565   -1.427909
            50    0       0.629860     52.055740     19.791920    -0.563003    0.433039    1.172738
            51    0       1.699820     58.404000     17.592820     0.089658   -0.500406    0.845681
            52    0       1.699110     62.212960     19.791920     0.127973    0.157824   -0.535099
            53    0       2.644280     72.370170     19.791920     0.215919    0.324676    0.960188
            54    0       1.006170     35.550260     21.991020    -0.333531   -0.072039    1.406008
            55    0       1.458120     50.786090     21.991020     0.239113   -0.833406    1.238625
            56    0       1.702660     66.021910     21.991020     0.215105    1.287573    0.061646
            57    0       0.787290     63.482610     21.991020    -0.163286    0.057389    1.006954
            58    1       0.104060      0.000000      0.000000     0.065543    1.829510    1.160737
            59    1       0.162720      7.617910      0.000000    -0.020177    0.389609    1.525142
            60    1       1.956480      8.887570      2.199100    -0.019315    0.071798   -0.988144
            61    1       0.272730     15.235830      0.000000    -0.036744    0.074338    1.526601
            62    1       2.088200     16.505480      2.199100     0.170814   -0.142817   -0.779574
            63    1       1.545420     29.202000      2.199100    -0.072407    0.481497   -0.650690
            64    1       2.413290     35.550260      0.000000     0.091515    0.298950    1.301831
            65    1       2.478550     31.741300      2.199100     0.028715   -0.062744   -1.087897
            66    1       1.586600     36.819910      2.199100    -0.150396   -0.152531   -0.965367
            67    1       0.602470     38.089570      0.000000     0.191881   -0.514637    0.995920
            68    1       1.437580     44.437830      2.199100    -0.069827    0.262375    0.078369
            69    1       2.255880     46.977130      2.199100    -0.130974   -0.440174   -0.620468
            70    1       1.908000      8.887570      6.597310     0.046479    0.243176    0.204383
            71    1       2.041800     16.505480      6.597310    -0.000388    0.195771    1.092781
            72    1       0.750960     26.662700      6.597310     0.216048   -0.090780    0.285365
            73    1       0.903650     34.280610      6.597310     0.058348   -0.355814    0.528717
            74    1       2.681910     31.741300      6.597310    -0.106818    0.571032    0.578639
            75    1       0.778840     41.898520      6.597310     0.078400    0.312386    0.227836
            76    1       0.767370     38.089570      4.398200     0.171464   -0.141686    0.185561
            77    1       1.557460     44.437830      6.597310    -0.211658   -0.807731   -0.001051
            78    1       0.261650     53.325390      4.398200    -0.028160    0.295340    0.190658
            79    1       2.161450     20.314430      8.796410    -0.087969   -0.077432   -0.716953
            80    1       0.160380     15.235830      8.796410    -0.176034    0.948182   -0.349960
            81    1       1.903750     16.505480     10.995510    -0.233025    0.088790   -1.036717
            82    1       1.695130     25.393040      8.796410    -0.141233   -0.007974   -0.545456
            83    1       2.078470     36.819910     10.995510    -0.092700    0.863971    0.169924
            84    1       1.929330     33.010960      8.796410     0.042643   -0.054124   -0.489880
            85    1       1.012950     38.089570      8.796410     0.127703    0.635390    0.328510
            86    1       0.259000     39.359220     10.995510     0.038225   -0.455349   -0.414345
            87    1       1.854660     40.628870      8.796410    -0.030649   -0.236717   -0.036176
            88    1       2.291170     46.977130     10.995510     0.194959    0.225872   -0.985332
            89    1       1.891300     58.404000      8.796410    -0.259839    0.401764    0.197063
            90    1       0.176400     53.325390      8.796410     0.094208    0.370031    0.098146
            91    1       1.024490     55.864700      8.796410     0.008601   -0.189690   -0.315183
            92    1       1.830190     62.212960     10.995510    -0.016853   -1.139867   -0.002962
            93    1       2.510690     19.044780     15.393710     0.021648   -0.639994    0.626736
            94    1       0.000000     22.853740     13.194610     0.023858   -0.114550    0.566892
            95    1       2.445670     29.202000     15.393710     0.073546   -0.615143    0.152628
            96    1       1.507190     34.280610     15.393710     0.058586    0.560785    0.187665
            97    1       2.410420     36.819910     15.393710    -0.057858    0.088608    0.530192
            98    1       1.597290     41.898520     15.393710    -0.009053   -0.232195   -0.013525
            99    1       0.638780     39.359220     15.393710     0.054134   -0.362809    0.250235
           100    1       2.475380     49.516440     15.393710     0.117701    0.776711    0.140447
           101    1       0.775190     52.055740     15.393710    -0.245843   -0.167791   -0.778022
           102    1       0.000000     53.325390     13.194610     0.019817   -0.765719    0.506350
           103    1       0.427520     21.584090     19.791920    -0.437137    0.801595   -0.105169
           104    1       0.760750     35.550260     17.592820     0.146927    0.414944   -0.791189
           105    1       0.909210     31.741300     19.791920    -0.030686    0.238087    0.802033
           106    1       1.680390     38.089570     17.592820    -0.022080   -0.161242   -0.413985
           107    1       0.940890     39.359220     19.791920     0.020933    0.032164    0.131703
           108    1       2.322110     49.516440     19.791920     0.339012   -0.987321    0.258773
           109    1       0.481830     48.246780     17.592820    -0.247144    0.014652    0.360441
           110    1       2.541770     57.134350     19.791920     0.126543   -0.296094    0.683125
           111    1       2.651200     68.561220     17.592820     0.145349   -1.186342    0.467777
           112    1       2.181640     22.853740     21.991020     0.022188    0.803118   -1.207912
           113    1       1.936450     30.471650     21.991020    -0.174594    0.148590   -0.800704
           114    1       0.464300     48.246780     21.991020    -0.117940   -0.196012   -1.370469
           115    1       2.431690     53.325390     21.991020     0.016830    0.622027   -1.001546
           116    1       2.614180     68.561220     21.991020     0.005249    0.045652   -1.344230
           117    2       1.032580      6.348260      2.199100    -0.027177    1.023792   -0.932208
           118    2       0.194450     11.426870      2.199100     0.148681   -0.682903   -0.512669
           119    2       1.135400     13.966170      2.199100    -0.167306    0.513511   -1.081279
           120    2       0.360410     19.044780      2.199100    -0.280858   -0.009319   -0.157376
           121    2       0.448200     22.853740      0.000000     0.144020   -0.254705   -0.227997
           122    2       1.405950     25.393040      0.000000    -0.043137   -0.122955   -0.090119
           123    2       0.696710     34.280610      2.199100    -0.124269    0.231055   -1.506130
           124    2       1.513110     33.010960      0.000000     0.199297    0.172546    0.698870
           125    2       0.608620     41.898520      2.199100     0.375259    0.680174    0.115374
           126    2       1.468000     40.628870      0.000000    -0.146963   -0.440502    0.065612
           127    2       0.989170      6.348260      6.597310     0.152041    1.058197   -0.616767
           128    2       0.141710     11.426870      6.597310     0.154098   -1.142719    0.471477
           129    2       0.339520     19.044780      6.597310    -0.309602    0.285138    0.737794
           130    2       2.201390     20.314430      4.398200     0.100708    0.274343    0.295399
           131    2       1.368040     21.584090      6.597310     0.000623   -0.656932    0.271806
           132    2       0.511700     22.853740      4.398200     0.241790   -0.745555    0.275768
           133    2       1.735980     29.202000      6.597310     0.010119   -0.053726    0.057313
           134    2       1.791580     36.819910      6.597310    -0.449809    0.417370    0.149457
           135    2       2.436600     43.168170      4.398200    -0.060158    0.176401    0.302239
           136    2       0.053410     11.426870     10.995510     0.150328    0.006149    0.194765
           137    2       0.987160     10.157220      8.796410    -0.207976   -0.088412   -0.727693
           138    2       1.131760     17.775130      8.796410     0.343066   -0.670499   -0.477258
           139    2       0.578810     22.853740      8.796410     0.202464   -0.619208   -0.118976
           140    2       0.278650     31.741300     10.995510    -0.172491    1.019350   -0.097258
           141    2       2.638220     43.168170      8.796410     0.147651   -0.460497   -1.195669
           142    2       0.643020     45.707480      8.796410     0.067654   -0.135105   -0.056650
           143    2       1.313730     48.246780      8.796410    -0.044900   -0.642152    0.346484
           144    2       0.941660     59.673650     10.995510     0.067518    1.152591   -1.950741
           145    2       1.795560     12.696520     13.194610     0.025956    0.041422   -0.965949
           146    2       1.687370     16.505480     15.393710     0.126779    0.895403    0.064861
           147    2       1.626720     26.662700     15.393710     0.149971    0.747519   -0.331699
           148    2       0.448890     27.932350     13.194610    -0.228672   -0.336354    1.312119
           149    2       2.244450     25.393040     13.194610    -0.267603    0.556348    0.972291
           150    2       2.244450     33.010960     13.194610     0.021938    0.633412    0.162067
           151    2       0.448890     43.168170     13.194610    -0.257333   -0.534021    1.144388
           152    2       1.346670     38.089570     13.194610     0.048001   -0.033534    0.042075
           153    2       2.667250     44.437830     15.393710    -0.106987   -1.009194    0.245382
           154    2       1.795560     50.786090     13.194610     0.189056    0.692847    1.319916
           155    2       0.853900     59.673650     15.393710    -0.162915    0.179685    0.281942
           156    2       0.874430     67.291570     15.393710     0.057934   -0.116401    1.762315
           157    2       1.942380     26.662700     19.791920    -0.043348    0.287323    0.492878
           158    2       0.862370     27.932350     17.592820     0.144981    0.210691   -0.819761
           159    2       1.914500     41.898520     19.791920    -0.195024   -0.848556    0.490090
           160    2       2.050320     45.707480     17.592820     0.068257    0.432187   -0.023192
           161    2       1.285000     46.977130     19.791920    -0.030265    0.943590    0.295406
           162    2       1.597290     54.595040     19.791920     0.202398    1.010022    0.724720
           163    2       0.778390     59.673650     19.791920    -0.362268   -0.793970    0.825749
           164    2       0.771070     55.864700     17.592820    -0.213418   -0.242477    0.685690
           165    2       2.613770     64.752260     19.791920     0.041016    0.700696   -0.737235
           166    2       1.745450     66.021910     17.592820    -0.022345    0.754401    0.091902
           167    2       0.830990     67.291570     19.791920    -0.286359    0.490358   -0.341956
           168    2       0.837110     63.482610     17.592820     0.185923    0.402450    0.407161
           169    2       0.111790     33.010960     21.991020    -0.102410   -1.061331   -0.488394
           170    2       1.154520     43.168170     21.991020    -0.021439   -0.494676   -0.027998
           171    2       1.925960     38.089570     21.991020    -0.233291    0.694390   -0.480560
           172    2       2.152510     45.707480     21.991020    -0.116497    0.669620   -0.087205
           173    2       1.631570     58.404000     21.991020     0.110987   -0.308170   -0.855818
           174    2       0.829540     71.100520     21.991020     0.155636    0.458325   -0.554513
           175    3       1.089860     10.157220      0.000000    -0.106307   -1.153939    1.028391
           176    3       2.180840     20.314430      0.000000     0.129756    0.415449    0.205940
           177    3       1.336170     21.584090      2.199100    -0.131615   -0.665358    0.162053
           178    3       0.591600     26.662700      2.199100     0.518802    0.604259   -0.809065
           179    3       0.595380     30.471650      0.000000     0.160832    0.858741    0.888501
           180    3       0.380690     49.516440      2.199100    -0.276737   -0.858751   -0.853172
           181    3       2.136610     50.786090      0.000000     0.208231   -0.684901   -0.376289
           182    3       0.464960     45.707480      0.000000    -0.063809    0.257741    0.816746
           183    3       1.299960     48.246780      0.000000     0.365682   -0.284840    0.062970
           184    3       1.081590     13.966170      6.597310    -0.098819    0.912255    1.141021
           185    3       1.052610     10.157220      4.398200     0.037335   -0.327108    0.026053
           186    3       1.513550     25.393040      4.398200    -0.414749   -0.005961    0.836897
           187    3       2.650230     39.359220      6.597310     0.136974    0.019747    0.814179
           188    3       1.616080     40.628870      4.398200    -0.328084    0.720029    0.717739
           189    3       0.371230     49.516440      6.597310     0.053586    0.234279    0.513456
           190    3       2.133000     50.786090      4.398200     0.172219    1.057299   -0.050900
           191    3       0.540830     45.707480      4.398200     0.147597   -1.318659   -1.069437
           192    3       1.165700     52.055740      6.597310    -0.161709    0.982120    0.091697
           193    3       1.331260     48.246780      4.398200    -0.008877   -0.643137   -1.036994
           194    3       1.993830     54.595040      6.597310    -0.192930    0.011723   -0.018613
           195    3       1.103080     55.864700      4.398200     0.177069   -1.413267    0.646790
           196    3       1.286930     21.584090     10.995510    -0.463315    0.400190   -1.533669
           197    3       1.186150     34.280610     10.995510     0.393900   -0.512083   -0.031690
           198    3       1.096040     41.898520     10.995510    -0.176752   -1.329243   -0.813204
           199    3       2.057870     50.786090      8.796410    -0.049804    0.547735   -0.291372
           200    3       1.020370     52.055740     10.995510     0.089384    1.102624    0.505677
           201    3       1.876100     54.595040     10.995510     0.090476   -1.120084   -1.182564
           202    3       0.075120     60.943300      8.796410     0.101578   -1.211703    1.913111
           203    3       0.508630     21.584090     15.393710    -0.041314   -0.839181   -0.012367
           204    3       0.897780     17.775130     13.194610     0.134107   -0.788083    1.029920
           205    3       0.963200     24.123390     15.393710     0.889092    1.013381   -1.370230
           206    3       0.448890     35.550260     13.194610    -0.178179    0.541368    0.907624
           207    3       0.619130     31.741300     15.393710     0.064802    0.512605   -0.001824
           208    3       2.244450     40.628870     13.194610     0.001281   -0.566010    0.701502
           209    3       1.346670     45.707480     13.194610     0.120851   -1.860947   -0.633565
           210    3       0.897780     48.246780     13.194610    -0.742615    2.056947   -0.283633
           211    3       2.635540     57.134350     15.393710     0.202609    0.011988    1.076858
           212    3       1.715020     54.595040     15.393710     0.073459   -1.329731    0.134488
           213    3       1.760930     62.212960     15.393710    -0.210247   -0.083378    0.480113
           214    3       0.897780     63.482610     13.194610     0.202345    0.039267   -1.109278
           215    3       1.429670     20.314430     17.592820     0.329392   -0.333099    0.973051
           216    3       2.114530     22.853740     17.592820     0.238417   -1.391996    0.850964
           217    3       1.789690     34.280610     19.791920    -0.146383   -0.925271   -0.258016
           218    3       1.691480     30.471650     17.592820    -0.122933   -0.409063   -0.362614
           219    3       0.003980     36.819910     19.791920     0.075002    1.387227   -1.097084
           220    3       2.559570     33.010960     17.592820     0.094172    0.941076   -0.181830
           221    3       0.952900     43.168170     17.592820     0.252363   -0.249424   -1.150008
           222    3       2.634240     40.628870     17.592820     0.050610   -1.153107   -0.355765
           223    3       2.516940     53.325390     17.592820     0.101346    1.041944   -0.584811
           224    3       2.618210     60.943300     17.592820     0.242239    0.025748   -0.118337
           225    3       1.738670     69.830870     19.791920    -0.264407   -0.907117    0.161431
           226    3       1.095380     27.932350     21.991020     0.121068    0.201232    0.477428
           227    3       0.282010     25.393040     21.991020    -0.483232   -0.380509    0.718877
           228    3       0.179480     40.628870     21.991020    -0.070025   -0.203666   -0.696681
           229    3       0.692480     55.864700     21.991020    -0.044322   -0.017394   -1.202036
           230    3       2.559890     60.943300     21.991020     0.206090   -1.210263   -0.049346
           231    3       1.736130     73.639830     21.991020    -0.193973   -2.013834   -0.747946
 Energy
      -2397.909852960000
 PlusStress:  xx          yy          zz          yz          xz          xy
       -82.85136  -116.42395   -93.62497   -14.87968   -22.27000     0.36372
 Feature   EFS_by	VASP
END_CFG

BEGIN_CFG
 Size
    231
 Supercell
         2.693339      0.000000      0.000000
         0.000000     76.179131      0.000000
         0.000000      0.000000     26.389225
 AtomData:  id type       cartes_x      cartes_y      cartes_z           fx          fy          fz
             1    0       0.100280      3.814590      2.293080     0.928255   -0.354281   -1.690418
             2    0       1.903370      5.187320     26.077300     0.076287    0.222236    0.776022
             3    0       1.931770      1.071170      2.409910    -0.188308    0.319965   -2.402989
             4    0       1.068080      2.394270     26.095140    -0.227955   -1.073551    1.768114
             5    0       2.037680     12.771990     26.194470     0.073419   -0.104006    0.227555
             6    0       1.191870     17.680850     26.168890     0.086644    0.483755    0.749206
             7    0       2.359780     27.959240     26.027230    -0.239134    0.057679   -0.018595
             8    0       2.320990     24.067440      2.000100     0.165742    0.527736   -0.794764
             9    0       2.320980     43.126680     26.068510    -0.046883   -0.213112   -0.085425
            10    0       2.454010     39.256400      2.046680     0.070915   -0.112692   -0.661324
            11    0       1.245030     52.432670      2.040710     0.266566   -1.512755   -0.177195
            12    0       1.849690      4.860930      4.547410    -0.452312    1.351816    0.841572
            13    0       1.906470     12.650300      4.347890     0.414948    0.406919    0.226036
            14    0       0.117870      7.628330      4.516420     0.077012   -0.853668    0.523201
            15    0       0.215400     15.341400      4.366670    -0.221787   -0.415858    0.072727
            16    0       1.206970     17.889090      4.451690     0.227842    0.087589    0.484879
            17    0       2.454190     27.966490      4.481950     0.074617   -0.757608   -1.192258
            18    0       2.406840     24.073320      6.671230     0.202026   -0.219384   -1.068882
            19    0       2.552770     35.591310      4.369500     0.319556    0.339985   -0.666549
            20    0       0.747250     30.509810      4.389550    -0.066646    0.455007   -0.546423
            21    0       1.726170     33.036060      4.384930    -0.057957    0.266457   -0.465529
            22    0       2.294330     46.846070      6.712640    -0.237431   -0.106478   -1.570390
            23    0       0.155050     57.496510      6.594900     0.705464   -1.950549   -1.458229
            24    0       1.903540     12.565140      8.832080     0.393373   -0.937495    0.093766
            25    0       0.967660     13.973280     10.967710     0.184279   -0.462195    1.109435
            26    0       0.178280     18.960950     10.820240    -0.067195   -0.132955    0.211009
            27    0       1.126860     26.596540     11.068340    -0.024555    1.130905   -0.473353
            28    0       0.029930     27.831780      8.677230    -0.075246    0.533207    0.557207
            29    0       0.045520     24.155060     10.929680    -0.415694   -1.256910   -0.294237
            30    0       2.101530     29.271530     11.094200     0.258951   -0.456659   -1.189480
            31    0       0.133790     35.618380      8.718770    -0.081633    0.083115    0.903315
            32    0       1.026250     30.614270      8.721760    -0.209926   -0.479907    0.358897
            33    0       1.816440     44.434530     10.852200     0.394217   -0.507523   -0.040834
            34    0       0.190810     49.493680     11.005270    -0.124031    0.638485    0.512857
            35    0       0.085260     57.178790     10.794570    -0.135514   -0.096605   -0.265514
            36    0       1.877180     20.302630     13.211470    -0.685478   -0.473757   -0.492818
            37    0       0.030590     15.098440     13.381450     0.140036   -0.320952   -0.009140
            38    0       1.306270     30.471800     13.223380     0.282369    0.715365    1.227987
            39    0       1.322380     47.025030     15.627220    -0.050541    0.439697   -0.926216
            40    0       1.796990     58.499060     13.138990    -0.235144   -0.684992   -0.266404
            41    0       0.871100     55.777100     13.199640    -0.071161   -0.137314   -0.116168
            42    0       2.669860     64.940070     15.271350    -0.420604    0.159376    0.028200
            43    0       0.046250     60.992530     13.042970    -0.289467    2.555241   -0.260406
            44    0       0.661410     17.649250     17.779210    -0.476471    0.150985   -1.244864
            45    0       1.205510     24.000690     19.912800     0.037667   -0.554325    1.984548
            46    0       2.688260     29.300080     19.896210     0.072239   -0.421069    1.640470
            47    0       0.153560     25.507050     17.604060    -0.522778   -1.231299    0.334725
            48    0       0.225980     44.496940     19.949570     0.030660    0.141692    1.020214
            49    0       1.580590     50.676640     17.487530    -0.463488    0.901720    1.822056
            50    0       0.592930     52.091430     19.895990    -0.008573   -0.191030    0.831150
            51    0       1.702340     58.322400     17.683010    -0.289871    0.302544    0.716887
            52    0       1.713450     62.233770     19.817940    -0.076335   -0.143005    1.217337
            53    0       2.490970     72.495080     19.659430     0.603091   -0.462482    2.337921
            54    0       0.964450     35.524850     22.367710    -0.096402    0.123342   -0.274513
            55    0       1.450490     50.719260     22.312490     0.077245   -0.096631    0.233070
            56    0       1.673550     66.146390     22.173190     0.428702    0.727668   -0.751089
            57    0       0.791850     63.528410     22.217930    -0.242948   -0.541872   -0.522427
            58    1       0.047220     75.934610     26.349910     0.141285    2.354392    1.159151
            59    1       0.206010      7.674690     26.063970    -0.017475   -0.058494    1.878484
            60    1       1.890420      8.841850      2.059080     0.149246    0.372055   -0.264717
            61    1       0.300440     15.331620     26.119470    -0.134080   -0.523355    1.697431