BEGIN_CFG
 Size
    54
 Supercell
         9.966864      0.000000      0.000000
         0.000000      9.966864      0.000000
         0.000000      0.000000      9.966864
 AtomData:  id type       cartes_x      cartes_y      cartes_z           fx          fy          fz
             1    0       9.961300      0.010530      9.924100    -0.258514   -0.057556    0.022763
             2    0       9.861870      0.103740      3.306700     0.546496   -0.901752    0.087931
             3    0       9.941610      0.093210      6.583260     0.067330   -0.991164    0.662812
             4    0       0.161330      3.290410      0.053410    -1.164576    0.567330   -0.738929
             5    0       0.000510      3.250750      3.318120    -0.217612   -0.057917    0.360618
             6    0       0.014600      3.336640      6.635160    -0.195541   -0.818781    0.127179
             7    0       0.024690      6.547270      0.059350     0.444985    0.863659    0.130348
             8    0       0.031000      6.499170      3.259200    -0.261002    0.704676    1.538132
             9    0       0.082950      6.795420      6.670980    -1.209874   -0.984789   -0.079275
            10    0       3.374270      0.162340      9.889100    -1.412945   -2.510349    2.146702
            11    0       3.271060      9.862750      3.284430    -0.230135    0.875857    1.247480
            12    0       3.337800      9.838750      6.566060    -0.145877    0.694431    0.916477
            13    0       3.280180      3.216560      9.954670    -0.286400    2.080324    1.253184
            14    0       3.561500      3.404540      3.571840    -1.152957   -0.457492   -1.891670
            15    0       3.380160      3.262460      6.552270    -0.925552    0.513002    0.243735
            16    0       3.272440      6.600960      0.080680     0.341389   -0.030389   -0.414324
            17    0       3.261190      6.656720      3.352550     0.123591   -0.366314   -0.311604
            18    0       3.339290      6.657540      6.747060    -0.369321   -0.457610   -0.668954
            19    0       6.535510      9.911400      0.020570     0.771525    0.573943   -0.208249
            20    0       6.599820      9.882730      3.352530    -0.159000    1.112169   -1.195823
            21    0       6.502230      0.005490      6.666460    -0.636494    0.543460    0.084649
            22    0       6.704390      3.355460      9.822460    -0.299380   -0.347736    1.007981
            23    0       6.769560      3.420940      3.197670    -0.915716   -0.505957    0.918026
            24    0       6.571680      3.282330      6.556700     0.707131    1.087189    1.381050
            25    0       6.771620      6.874410      9.857350    -0.683630   -1.697514    0.636220
            26    0       6.719730      6.680090      3.207800    -0.326674   -0.746474    0.080649
            27    0       6.736500      6.738120      6.743300    -1.069133   -1.155202   -0.563084
            28    0       1.628750      1.658760      1.580440     0.642463   -0.629640    1.228991
            29    0       1.676710      1.561590      4.989100     0.021486    0.764975   -0.113963
            30    0       1.715730      1.673170      8.315140    -1.127736   -0.339952   -0.854179
            31    0       1.733890      4.931210      1.862880     0.309673   -0.392832   -1.217865
            32    0       1.604330      4.838250      5.028750     0.554917    1.325009   -0.066664
            33    0       1.563180      5.035230      8.239440     1.146920   -0.507053    0.662576
            34    0       1.599320      8.302030      1.716700    -0.074406   -0.092837   -0.752810
            35    0       1.623850      8.280710      5.100170     0.325445    0.433330   -1.485001
            36    0       1.779010      8.235640      8.439140    -0.945499    0.648838   -0.776592
            37    0       4.964310      1.555150      1.774610     0.542380    1.166362   -0.800066
            38    0       5.065740      1.725950      5.016730    -0.728640   -1.506141   -1.191845
            39    0       4.670110      1.729020      8.412480     3.864402   -0.242353   -2.452521
            40    0       5.049740      5.094390      1.484530     0.117516   -0.514824    0.869606
            41    0       5.133990      5.198220      4.935370    -0.085232   -1.189804    0.730906
            42    0       4.885540      4.851250      8.272130     0.932341    1.199679    0.548050
            43    0       4.855970      8.398880      1.695410     0.748773   -0.962456   -0.411317
            44    0       4.978040      8.105370      4.895890    -0.157313    1.344438    0.809344
            45    0       4.912330      8.288000      8.374420     0.201405    0.297504   -0.559433
            46    0       8.384830      1.699900      1.577040    -0.904267   -0.319015    0.008894
            47    0       8.177180      1.610160      5.080130     0.642044    0.729686   -1.109368
            48    0       8.269970      1.694640      8.215860     0.404816   -0.037799    0.788824
            49    0       8.402780      4.903780      1.618670    -0.415016    0.562010   -0.491506
            50    0       8.298500      4.957390      5.126320     0.392706    0.428929   -1.280402
            51    0       8.497650      5.037590      8.315850    -1.076769   -0.416098   -0.629864
            52    0       8.419720      8.149260      1.685180    -0.590212    1.807631   -0.024469
            53    0       7.997430      8.440590      4.953340     2.712670   -1.157991    0.365305
            54    0       8.197670      8.425030      8.149250     1.463020    0.071363    1.431345
 Energy
       -634.156184860000
 PlusStress:  xx          yy          zz          yz          xz          xy
        18.69159    18.86126    15.75626    -1.21399     0.33248     1.00890
 Feature   EFS_by	VASP
 Feature   mindist	2.512786
END_CFG

BEGIN_CFG
 Size
    54
 Supercell
         9.966864      0.000000      0.000000
         0.000000      9.966864      0.000000
         0.000000      0.000000      9.966864
 AtomData:  id type       cartes_x      cartes_y      cartes_z           fx          fy          fz
             1    0       0.035060      0.171000      0.025530    -0.484477   -1.557282   -0.724380
             2    0       0.047640      0.133400      3.282060    -0.792405   -0.819758   -0.002696
             3    0       0.116710      9.919930      6.717430     0.060462    0.319155   -0.217350
             4    0       9.853480      3.387010      9.885050     0.688099   -0.316207   -0.089418
             5    0       9.771710      3.362780      3.170100     0.561056   -0.383894    0.788426
             6    0       0.058640      3.325240      6.417760    -0.600178   -0.513716    1.420509
             7    0       0.066910      6.509430      9.950240    -0.342960    1.264303   -0.312932
             8    0       0.059310      6.708980      3.345930    -0.659577    0.042173   -0.000150
             9    0       9.959620      6.621460      6.464840    -0.395599    0.143464    1.192221
            10    0       3.300820      0.115160      0.032120     0.570393   -1.325368    0.427847
            11    0       3.226500      0.089750      3.262540     1.382049   -1.008637    0.430989
            12    0       3.474320      9.698500      6.678410    -0.535312    1.273912   -0.184549
            13    0       3.516720      3.176050      9.960940    -1.757883    1.003737   -0.065948
            14    0       3.175620      3.252910      3.475610     0.825435    0.694452   -1.838759
            15    0       3.331980      3.319810      6.554830    -0.320752   -0.255648    0.145999
            16    0       3.161800      6.686390      0.122400     1.524682   -1.147326   -0.465679
            17    0       3.330980      6.618760      3.380590    -0.804024    0.220379   -0.777652
            18    0       3.328940      6.577560      6.558480    -0.125605    0.934112    0.776062
            19    0       6.706770      0.030870      0.101180    -0.196046   -0.412446   -0.627099
            20    0       6.707030      9.884370      3.491390    -0.069367    1.162037   -1.113681
            21    0       6.859340      9.939430      6.579430    -1.595236   -0.136031    1.055205
            22    0       6.629360      3.275720      9.780440    -0.197308    0.780587    1.530002
            23    0       6.569850      3.440560      3.181300    -0.079194   -0.490537    1.005209
            24    0       6.539730      3.227240      6.818460     0.415002    0.461421   -0.705453
            25    0       6.598100      6.696010      0.113100     0.461760   -0.499966   -1.260443
            26    0       6.700590      6.695000      3.376590    -0.330330   -0.212712   -0.148743
            27    0       6.755100      6.784510      6.910300    -1.509017   -1.533050   -2.119592
            28    0       1.562280      1.647050      1.575780     0.858518    1.537099    0.584819
            29    0       1.666360      1.557970      4.889670    -0.350547    0.536655    1.230471
            30    0       1.804790      1.596270      8.207480    -0.793176    0.576477    0.223617
            31    0       1.526160      4.913820      1.606070     1.066904    0.110065    0.661877
            32    0       1.497160      4.993100      4.870850     1.360022   -0.234113   -0.026221
            33    0       1.578000      4.972820      8.012580     0.572974   -0.337972    1.788156
            34    0       1.612970      8.355610      1.686850     0.230086    0.194015   -0.139515
            35    0       1.725950      8.378710      4.954340    -0.015092   -0.629961   -0.301005
            36    0       1.704710      8.249060      8.539290    -0.252198    0.362642   -2.135332
            37    0       4.993720      1.644650      1.768040     0.249360    0.055989   -0.256217
            38    0       5.004060      1.700440      5.009420    -0.070554   -0.684318   -0.392409
            39    0       4.961600      1.564780      8.312830     0.571129   -0.343927   -0.544163
            40    0       4.916800      5.092060      1.696180    -0.281298   -0.747802   -0.341675
            41    0       4.905340      5.003390      4.987570     1.142261   -0.418541    0.090990
            42    0       4.863900      4.945350      8.327740     0.397093    0.753726    0.285395
            43    0       5.064090      8.253270      1.696350    -0.887260    0.987512    0.645402
            44    0       5.105880      8.199640      4.905620    -0.790451    0.509924    1.402533
            45    0       4.994720      8.259420      8.436550     0.176254    0.224459    0.133513
            46    0       8.187060      1.717270      1.574680     0.575314   -0.192931    0.519066
            47    0       8.291700      1.721230      5.109790     0.226050    0.072361   -1.344096
            48    0       8.440620      1.651270      8.264400    -0.521083   -0.020247   -0.105460
            49    0       8.345380      5.255380      1.668220    -0.969269   -1.895822   -0.241016
            50    0       8.011540      4.817200      5.078060     1.513148    1.198406   -0.685799
            51    0       8.341560      5.002620      8.228060    -0.181889   -0.078682    0.070927
            52    0       8.335080      8.321230      1.704710     0.125663    0.344717    0.004734
            53    0       8.483680      8.421510      5.056980    -0.711854   -0.781064   -0.522209
            54    0       8.347270      8.238940      8.316750     1.066225    1.214178    1.275672
 Energy
       -634.542500420000
 PlusStress:  xx          yy          zz          yz          xz          xy
        14.86279    16.53472    15.79179    -0.16459     0.39155     0.36910
 Feature   EFS_by	VASP
 Feature   mindist	2.574582
END_CFG

BEGIN_CFG
 Size
    54
 Supercell
         9.966864      0.000000      0.000000
         0.000000      9.966864      0.000000
         0.000000      0.000000      9.966864
 AtomData:  id type       cartes_x      cartes_y      cartes_z           fx          fy          fz
             1    0       9.818490      0.103170      0.137140     0.820345   -1.431941   -1.267071
             2    0       9.882970      0.015600      3.214840     0.361061   -0.428683    1.596995
             3    0       9.845660      0.055470      6.642580     1.398114   -0.010894    0.390983
             4    0       0.004720      3.453330      0.092710     0.012593   -1.405081   -0.431740
             5    0       9.940440      3.178970      3.554940     0.655559    0.892483   -1.578831
             6    0       9.957940      3.329860      6.761640     0.047446    0.304821   -0.213733
             7    0       0.042430      6.382440      0.041110    -0.193751    1.595542    0.126145
             8    0       0.056320      6.650560      3.345070    -0.054054   -0.244241   -0.060954
             9    0       9.929610      6.516610      6.550900     0.059212    1.013766    0.783868
            10    0       3.481350      0.205370      0.074590    -0.325891   -1.633566   -0.899927
            11    0       3.150560      0.124560      3.408600     1.171214   -0.516280   -1.181865
            12    0       3.002060      9.797150      6.627810     1.844287    1.981634    0.449621
            13    0       3.397600      3.233450      9.838500    -0.582023    0.772362    0.885756
            14    0       3.533740      3.284310      3.483330    -1.540315    0.775898   -1.140254
            15    0       3.442460      3.499580      6.828190    -1.250906   -0.661694   -1.881400
            16    0       3.510170      6.568320      0.010620    -2.162440    1.210326   -0.002727
            17    0       3.258150      6.534470      3.183880     0.170357    1.095427    0.856311
            18    0       3.260350      6.945110      6.696920     0.769566   -1.393458   -0.303022
            19    0       6.674640      9.930230      0.003110    -0.519798   -0.565266   -0.201455
            20    0       6.810040      9.927850      3.334260    -0.997897   -0.044996   -0.335076
            21    0       6.633760      0.014080      6.572110     0.625916   -0.074160   -0.072955
            22    0       6.489720      3.275980      9.909480     1.348695    0.636856   -0.120629
            23    0       6.639680      3.184850      3.211710     1.325880    2.103114    1.444642
            24    0       6.639890      3.462680      6.574960     0.047490   -1.279505    1.066221
            25    0       6.564900      6.638040      9.931610     1.059681   -0.025997   -0.754299
            26    0       6.644380      6.525980      3.241750    -0.423711    0.866017    0.342521
            27    0       6.635800      6.635060      6.418150    -0.350279    0.018263    1.643788
            28    0       1.646170      1.503820      1.539080     0.297783    2.165671    1.837036
            29    0       1.751020      1.811720      5.057230    -0.845847   -0.866514    0.729292
            30    0       1.624390      1.704500      8.372330    -0.023478   -0.228169   -0.038926
            31    0       1.645280      4.743310      1.894170     0.550168    0.681344   -0.734395
            32    0       1.806790      5.102910      5.152660    -0.538913   -1.075875   -0.955531
            33    0       1.710070      5.094290      8.280050    -0.023494   -0.704210    0.319487
            34    0       1.588950      8.470540      1.507780     0.862270   -1.242097    0.924664
            35    0       1.572090      8.390900      4.969190    -0.610405   -0.961149   -0.769067
            36    0       1.531750      8.296890      8.504550     0.083238    0.068630   -0.538732
            37    0       5.189910      1.770520      1.695160    -2.357554   -2.146981   -0.483390
            38    0       5.029680      1.716140      4.916810    -0.160119   -1.001642    1.354003
            39    0       4.888560      1.620570      8.132440     0.981187    0.027568    0.641587
            40    0       4.946870      4.958930      1.618160     0.463803   -0.739359    0.075721
            41    0       5.101980      4.978060      4.920710    -1.437569    0.520524    0.075183
            42    0       4.936600      5.145640      8.264640     1.196835   -0.583276   -0.314065
            43    0       5.092370      8.119630      1.657800    -0.780915    1.810127    0.358003
            44    0       4.910810      8.484540      4.820650     0.305739   -1.248704    0.257854
            45    0       5.093690      8.352760      8.160620    -0.704703    0.116507    0.861683
            46    0       8.247150      1.648860      1.687890     0.482616    0.040121   -0.408906
            47    0       8.414150      1.671460      5.066950    -1.498113   -0.274050   -0.474473
            48    0       8.301730      1.603270      8.530920    -0.266351    1.179064   -2.149117
            49    0       8.263640      5.070120      1.645240     0.330329   -1.483662    0.248181
            50    0       8.265770      4.942170      4.889260     0.476760   -0.102211    0.312551
            51    0       8.219600      4.956810      8.370670     0.253020    0.236483   -0.626100
            52    0       8.284980      8.108200      1.637710     0.358048    0.954545   -0.026269
            53    0       8.188090      8.137620      4.966510     1.404088    1.593331   -0.281181
            54    0       8.555720      8.277770      8.205320    -2.114772   -0.286764    0.663994
 Energy
       -632.897955980000
 PlusStress:  xx          yy          zz          yz          xz          xy
        21.21020    20.98951    20.63791     0.15094    -0.46572    -1.32707
 Feature   EFS_by	VASP
 Feature   mindist	2.530234
END_CFG

BEGIN_CFG
 Size
    54
 Supercell
         9.966864      0.000000      0.000000
         0.000000      9.966864      0.000000
         0.000000      0.000000      9.966864
 AtomData:  id type       cartes_x      cartes_y      cartes_z           fx          fy          fz
             1    0       9.890090      0.049370      9.832480     1.164645   -0.792798    1.554733
             2    0       9.898460      9.940420      3.177720     0.032645    0.192795    0.409471
             3    0       0.008800      0.160360      6.543440    -0.734183   -1.009593    1.234499
             4    0       0.151260      3.338390      9.864880    -1.342055    0.095223    0.926646
             5    0       0.106020      3.379700      3.292880    -0.322914   -0.619175   -0.554767
             6    0       9.935360      3.495330      6.626890    -0.060630   -1.872507   -0.061358
             7    0       0.204170      6.626650      9.966070    -1.926192   -0.393914   -0.315214
             8    0       0.241380      6.662190      3.352440    -2.148218    0.692677   -1.004501
             9    0       9.875400      6.467860      6.633880     0.739969    1.713648    0.998793
            10    0       3.280640      0.063220      0.112440     0.938623   -0.867172   -1.890815
            11    0       3.346510      0.042440      3.365480    -0.573438   -0.288322   -0.989959
            12    0       3.057000      9.891970      6.735030     2.078827   -0.116778   -1.286834
            13    0       3.513100      3.350680      9.839870    -1.722430   -1.271579    1.092186
            14    0       3.332450      3.173490      3.319460    -0.384568    0.861755   -0.042433
            15    0       3.387020      3.276760      6.670060    -1.053090   -0.197701    0.455469
            16    0       3.314840      6.579460      9.909720     0.576095    0.629095    0.238001
            17    0       3.325480      6.592840      3.214360     0.739670    1.222953    1.688068
            18    0       3.386090      6.666140      6.782280    -0.989670   -0.635139   -0.835395
            19    0       6.514740      9.868560      0.015240     1.358932    0.336170    0.091102
            20    0       6.633100      0.156480      3.454650     0.099674   -1.004867   -0.028200
            21    0       6.867140      9.961630      6.589990    -1.580309    0.077287    0.901220
            22    0       6.534320      3.348790      9.854640     0.968554   -0.074984    1.660535
            23    0       6.676480      3.373230      3.285910    -0.039157   -0.360361    0.562476
            24    0       6.528450      3.298020      6.700350     0.539149    0.228058   -0.175913
            25    0       6.524000      6.731100      0.034700     0.506800   -0.546245    0.198530
            26    0       6.635550      6.622840      3.457530    -0.452264    0.065462    0.211140
            27    0       6.626330      6.706340      6.573960     0.376635   -0.469878    0.651652
            28    0       1.697590      1.645410      1.368020    -0.646152    0.501271    2.279822
            29    0       1.677750      1.478710      4.959740    -0.410944    1.793260   -0.705827
            30    0       1.617740      1.612440      8.224190     0.381323    1.273571    0.631246
            31    0       1.877990      5.083240      1.693120    -1.625783   -2.088449   -0.856531
            32    0       1.599120      5.107180      4.989770     1.796946   -1.479425    0.033788
            33    0       1.654910      4.858770      8.279600     0.724509    1.278077   -0.341058
            34    0       1.778360      8.209570      1.455530    -0.550399    1.303547    1.695031
            35    0       1.594190      8.337930      4.941220     0.524961   -0.352880    0.302649
            36    0       1.607650      8.249530      8.241450    -0.593600    0.184395    0.600071
            37    0       5.096230      1.669490      1.623930    -0.880882    0.236077    0.542122
            38    0       4.813100      1.601120      5.113290     1.474954    0.321410   -0.406869
            39    0       5.087650      1.441130      8.308480    -1.058439    1.136207   -0.390233
            40    0       4.933420      4.918820      1.747560     0.875075    0.266487   -0.505252
            41    0       4.788810      4.882170      5.038410     1.497158    0.909932   -0.696946
            42    0       4.965510      5.012950      8.457770     0.930782    0.448498   -2.341593
            43    0       4.961160      8.483360      1.826350     0.175883   -1.662818   -0.283894
            44    0       4.871820      8.297950      5.091440     0.611201    0.282723   -0.582690
            45    0       4.975470      8.393080      8.192880    -0.035747   -0.448505    0.986253
            46    0       8.181600      1.563060      1.494380     0.889618    1.150477    0.993930
            47    0       8.270330      1.761480      5.043310     0.531246    0.146639   -1.094940
            48    0       8.274900      1.726690      8.473010    -0.123521   -0.004494   -1.693868
            49    0       8.346640      5.125430      1.740440     0.129230   -0.421674   -0.412511
            50    0       8.478300      5.028990      4.893370    -1.789259   -0.622225    0.176142
            51    0       8.232980      4.895480      8.360230     0.541833    1.028968   -0.104320
            52    0       8.066080      8.204820      1.703340     1.665233    0.751755   -0.314966
            53    0       8.468030      8.364740      5.157300    -0.864917   -0.578384   -1.930372
            54    0       8.410380      8.344070      8.431170    -0.961411   -0.948547   -1.268311
 Energy
       -633.351582230000
 PlusStress:  xx          yy          zz          yz          xz          xy
        22.38462    21.05213    16.52571     0.03692     0.33427    -0.08029
 Feature   EFS_by	VASP
 Feature   mindist	2.566292
END_CFG

BEGIN_CFG
 Size
    54
 Supercell
         9.966864      0.000000      0.000000
         0.000000      9.966864      0.000000
         0.000000      0.000000      9.966864
 AtomData:  id type       cartes_x      cartes_y      cartes_z           fx          fy          fz
             1    0       9.958940      9.881550      0.171910     0.529258   -0.073932   -0.471577
             2    0       0.044620      9.902050      3.367300    -0.511267   -0.426914   -0.404323
             3    0       0.034630      9.966210      6.737700     0.440203   -0.184041   -0.201404
             4    0       9.758370      3.574840      0.039210     0.805228   -1.697821    0.990511
             5    0       0.028030      3.447160      3.278280    -0.652284   -0.581463   -0.256152
             6    0       9.898880      3.216370      6.625510     0.393020    0.667465    0.663933
             7    0       0.192230      6.701290      9.952260    -2.539542    0.077603    0.104695
             8    0       0.035880      6.654450      3.317440    -0.269265    0.402111    0.846804
             9    0       9.940570      6.544620      6.653760     0.322831    0.719024   -0.242294
            10    0       3.211980      0.005100      0.186870     1.931171    0.717168   -2.121912
            11    0       3.461840      9.953390      3.339800    -0.941880    0.121766   -0.064956
            12    0       3.301070      0.159210      6.635280     0.399222   -1.040660   -0.087131
            13    0       3.202640      3.231670      9.933950     0.605423    0.677135    0.248635
            14    0       3.135620      3.364680      3.296940     1.290462   -0.105036    0.593831
            15    0       3.582460      3.402230      6.547690    -2.089921   -0.907171    1.147438
            16    0       3.256630      6.688400      9.810360     0.863177   -0.883582    0.960659
            17    0       3.233280      6.585560      3.329160     0.725481    1.204998   -0.167526
            18    0       3.353380      6.706010      6.645750     0.379252   -0.352446    0.265146
            19    0       6.718500      9.939930      9.881150    -0.425191   -0.400684    0.343962
            20    0       6.753470      0.020630      3.372200    -1.009872    0.074207   -0.459529
            21    0       6.836100      0.050710      6.405860    -0.879487    0.276527    2.469549
            22    0       6.542010      3.218060      9.839850     0.561400    0.671047    1.396231
            23    0       6.577660      3.235480      3.383090     0.138471    0.976245   -0.644720
            24    0       6.641490      3.357000      6.599710    -0.034390   -0.955545    0.257101
            25    0       6.621310      6.818540      0.004710    -0.131491   -1.306387   -0.184911
            26    0       6.440610      6.464950      3.294300     0.474486    1.860145    0.661500
            27    0       6.772770      6.570400      6.468240    -0.552499    0.509824    1.255430
            28    0       1.741560      1.577700      1.871990    -1.360173    0.499024   -1.462775
            29    0       1.450380      1.641800      4.874880     2.230231    0.179528    1.020534
            30    0       1.574750      1.569950      8.424500     0.259582    1.018658   -0.348390
            31    0       1.493470      5.125520      1.625070     1.621163   -1.295990    0.163766
            32    0       1.746380      5.031730      4.996770    -1.400707   -0.299425    0.526003
            33    0       1.427340      4.908710      8.232780     2.179595    0.140758    0.116595
            34    0       1.799640      8.373230      1.668440    -1.130083   -1.107151    0.887715
            35    0       1.745570      8.347650      5.091330    -0.222637   -0.235517   -0.601182
            36    0       1.736570      8.241680      8.363660    -0.592580    1.413284   -0.974098
            37    0       5.124750      1.636110      1.688930    -1.595448    0.201354   -0.442906
            38    0       5.011870      1.629610      4.938350     0.121356    0.366249    0.056848
            39    0       5.062790      1.642840      8.227210    -0.799252   -0.267803    0.250863
            40    0       4.795810      4.858530      1.749430     0.482552    0.339409   -1.805228
            41    0       4.924000      5.049670      5.010240     0.149298   -0.638991   -0.858118
            42    0       5.143250      4.973450      8.325050    -1.333966    0.751327   -0.394660
            43    0       4.991990      8.352580      1.573530    -0.093707   -0.438541    0.576367
            44    0       5.078580      8.433200      4.908150    -0.665819   -1.386433    0.684655
            45    0       5.179890      8.349770      8.154630    -1.068773    0.023538    0.398989
            46    0       8.159090      1.560880      1.601240     1.084135    1.006591    0.593735
            47    0       8.450080      1.712800      4.876370    -0.509901   -0.337164    0.606797
            48    0       8.448030      1.623310      8.544900    -0.667126    0.313085   -1.720124
            49    0       8.085230      5.160420      1.820950     1.325580   -1.300935   -1.460951
            50    0       8.309700      4.781030      4.978850    -0.190732    1.535697   -0.502172
            51    0       8.215410      4.931190      8.289360     0.401532    0.880199   -0.148023
            52    0       8.188200      8.301910      1.807330     1.006913   -0.430595   -1.075232
            53    0       8.304820      8.327210      5.081940     1.305899   -0.831360   -1.375663
            54    0       8.397790      8.285760      8.244600    -0.358931   -0.138381    0.387664
 Energy
       -633.539995980000
 PlusStress:  xx          yy          zz          yz          xz          xy
        19.09232    19.94076    19.39768    -1.87356    -0.27416     1.09552
 Feature   EFS_by	VASP
 Feature   mindist	2.564631
END_CFG

BEGIN_CFG
 Size
    54
 Supercell
         9.966864      0.000000      0.000000
         0.000000      9.966864      0.000000
         0.000000      0.000000      9.966864
 AtomData:  id type       cartes_x      cartes_y      cartes_z           fx          fy          fz
             1    0       9.952490      9.777660      0.203640    -0.105512    1.407675   -1.739468